9
Properties=species:S:1:pos:R:3:forces:R:3 energy=-97197.51727460267 pbc="F F F"
C       -0.14343097      -0.55688587      -0.16679143     -47.92009911      19.65733415      50.66935404
C       -1.06536579       0.56217291       0.64510538      52.59281783     -41.68942314      27.52875402
O        1.09814719      -0.02727315      -0.41035858      50.32829146      26.82195429     -39.34626098
H        0.04413390      -1.42504864       0.52223940     -14.07645273       8.43180943     -10.57971961
H       -0.62751307      -0.84886087      -1.07458497     -14.57732353     -13.86653436     -17.41116382
H       -1.97176283       0.18199512       1.13984250       0.05861803      -8.98126839      -6.60376937
H       -0.33328783       0.77511799       1.51649998     -26.27357917       9.04069492     -27.24488111
H       -1.34648409       1.44246038       0.07770821       7.14776303       7.85396318      -7.70663061
H        1.20675954       0.24275164      -1.36756375      -7.19337640      -7.23776757      30.64074825
9
Properties=species:S:1:pos:R:3:forces:R:3 energy=-97194.45720651327 pbc="F F F"
C       -0.48372989       0.21977064       0.33452855     -15.46879054      -0.34561469      24.27194079
C        0.10627769       0.86986841      -0.96296928       5.80463600     -10.74734530      35.99420850
O        0.29617510      -0.99103025       0.51863645      18.46047893      -3.64581827      36.14110293
H       -0.35648183       1.00344176       1.21698211      -8.25253827     -36.12703612     -30.73322026
H       -1.61053113      -0.23722134       0.35039054      48.98548728      39.95482362     -10.27370877
H        0.00388474       1.95481300      -0.97380040     -12.98320765       4.08421859      -9.14384386
H        1.20214877       0.69220333      -0.90505403      -8.21225184      -0.40031845       1.31924573
H       -0.24085115       0.32342814      -1.82128004      -8.46028897       2.23037399     -18.92399196
H        0.79729885      -0.99141259       1.38880990     -19.95153810       5.01885457     -28.55701503
9
Properties=species:S:1:pos:R:3:forces:R:3 energy=-97198.77360016463 pbc="F F F"
C       -0.32937376      -0.13128507      -0.44984181       3.21239900      58.86800027      23.12837803
C       -0.88978529       0.49015748       0.91490317      55.38242837     -15.64148950      10.44283338
O        1.11444588      -0.28649310      -0.45507367     -21.11878383      -3.22575094       8.39970943
H       -0.75577282      -1.04914766      -0.76858452     -21.13089052     -28.82451509       2.71957626
H       -0.51049869       0.54666702      -1.27604890     -10.00611647      14.65842678      -5.34977060
H       -1.91649922       0.74934536       0.97496387     -32.99659361       3.83535129     -13.76412335
H       -0.73334612      -0.19043102       1.80680440       2.03964414       6.46739046     -20.28805778
H       -0.32992452       1.43394845       1.18761853      -5.70937369     -17.92859195     -11.81510868
H        1.08265003      -1.22062725      -0.24291386      30.25172015     -18.33931985       6.49656180
9
Properties=species:S:1:pos:R:3:forces:R:3 energy=-97193.87401464324 pbc="F F F"
C       -0.15596891      -0.17469042      -0.36702243     -58.55391831       1.10080887     -26.48043051
C       -0.15827102       1.38844047      -0.26538240      43.02623163     -23.42977681      33.45341914
O        0.36342436      -1.08902176       0.56380709       8.43409241      -2.20334496      27.71854070
H       -1.28025513      -0.22964029      -0.43421875      10.88688348     -24.92339568       4.94070305
H        0.16867950      -0.55586337      -1.35454627       5.94341319      12.97518265      -0.58599117
H       -0.98114736       1.56701461      -0.93423218      -8.83739487      24.14211102      -7.86240327
H       -0.38664641       1.68477752       0.81143451       3.43601521      -1.28995678     -28.82728233
H        0.79817647       1.84102015      -0.62443982     -13.24890901       0.48854504       7.90707117
H       -0.34405377      -1.48551871       1.12227706       8.76510067      13.15373894     -10.11934279
9
Properties=species:S:1:pos:R:3:forces:R:3 energy=-97200.73084437303 pbc="F F F"
C       -0.00857003       0.52529365       0.36120283      20.84925446     -23.54185011     -62.56941705
C       -1.21671615      -0.20386668      -0.20619939     -41.14496828      12.56542329     -11.06834537
O        1.09009443      -0.30239123      -0.11955116     -24.66927062     -26.77952325       0.14809265
H        0.15167917       1.51001003      -0.09233709      -9.92434447       9.11769342       7.09797573
H       -0.05675552       0.54930520       1.41242606       3.18193627       4.60990233      40.56753712
H       -1.03489192      -1.26491041      -0.44307245       4.07058992       2.01570519      15.37777134
H       -2.13076431      -0.06811084       0.42175955      12.74568605      -9.15560464       1.81669207
H       -1.59492277       0.17970091      -1.17363985      12.69705177       6.77775971      -0.32678130
H        1.96181480       0.06231998      -0.07449131      22.29931233      24.41122530       9.05169470
9
Properties=species:S:1:pos:R:3:forces:R:3 energy=-97192.91329140619 pbc="F F F"
C       -0.17064735      -0.14652124      -0.63409269     -18.09123660      -7.97556041      10.38091634
C       -0.06225374       1.19059802       0.05785882      32.07279599      75.22101687     -55.38196716
O        0.17413542      -0.99377259       0.49195279     -25.87463511     -36.30298659     -23.79136310
H       -1.22316768      -0.33951026      -1.01520200      14.75774771       0.94782881      22.81014520
H        0.40728661      -0.43797011      -1.52128234      15.82970808      13.98181305       0.08901295
H       -0.68725992       1.10558346       0.88825574     -25.62696696      -2.41665550      40.96578936
H        1.00753090       1.48600835       0.45633487     -38.40401508     -14.74326581     -21.25636188
H       -0.49193049       2.11752175      -0.51020966      20.79589281     -30.47056287      11.47263943
H        0.99770572      -0.59992679       0.75960958      24.56227060       1.89033991      14.83382380
9
Properties=species:S:1:pos:R:3:forces:R:3 energy=-97194.8391613166 pbc="F F F"
C        0.06518372       0.52149381       0.24683803     -12.95917877     -37.02477555      -6.68621012
C       -1.36259938       0.02075505      -0.33455019      34.75655952      38.99251521      17.95465015
O        1.17320431      -0.50483082       0.13289454     -26.96861812      23.02366098       4.12194532
H        0.30412630       1.39047030      -0.33794677      12.36452152      17.73350139      -8.00600007
H       -0.03622212       0.85409580       1.31766414       9.76744185     -16.66783650     -15.62361773
H       -1.56491405      -0.96023550       0.16449519      -2.59689519       8.63130452     -23.22500090
H       -2.12682422       0.80295260       0.08414937      23.08548578     -28.76778662     -24.84130083
H       -1.19010900       0.10802324      -1.48573748     -23.93917994     -16.51921254      41.81210421
H        1.45037012      -0.64492665      -0.80692239     -13.53965390      10.63386532      14.35246206
9
Properties=species:S:1:pos:R:3:forces:R:3 energy=-97196.2808607305 pbc="F F F"
C        0.25268216       0.25858371       0.47810609      27.13995652      31.75387135      40.19880212
C       -0.07952582       0.92019416      -0.85106853     -15.59573777      57.85150005      33.75804636
O       -0.13056534      -1.09277864       0.37951412      11.71926987      -9.82788302      31.24262339
H        1.31832489       0.31068467       0.75230783      13.96996003     -10.33472646     -21.27610154
H       -0.01767651       0.79603074       1.48634781     -26.86553835     -15.24678855     -36.99848675
H        0.22351899       2.02706063      -0.96272075      -3.64175965     -32.79735218       7.36918851
H        0.41144239       0.34984689      -1.61074212       1.86268132     -10.04711777     -22.00812929
H       -1.19774142       0.94470799      -0.88887634      11.87797120      -4.99074401     -13.86614233
H       -0.72969200      -1.13017516      -0.35623017     -20.52813909      -6.28844214     -18.44281470
9
Properties=species:S:1:pos:R:3:forces:R:3 energy=-97194.70577771557 pbc="F F F"
C        0.17335786      -0.33694289       0.49587326     -23.20632202      70.89374219      49.96739698
C        0.64760205       1.12992205       0.02173203     -40.06828054     -31.55416872      17.87232470
O       -0.72956300      -0.79093363      -0.46379144       1.52201538     -48.64626953       6.79544700
H        0.98181959      -1.02191852       0.72031230      11.33084133     -10.39680492     -13.30888898
H       -0.31734536      -0.19457217       1.60166319      11.34142604      -6.58202346     -48.95481701
H       -0.17348176       1.57437716      -0.65835706      28.06582957      -9.26936135      21.70465508
H        0.75764268       1.73170367       0.92287666       3.06778754      11.00285398      -0.57141702
H        1.57737897       1.02461870      -0.48346363      21.61686433       5.95464358     -18.65151086
H       -1.02901235      -0.01013854      -0.90892972     -13.68343518      18.67482488     -14.94562038
9
Properties=species:S:1:pos:R:3:forces:R:3 energy=-97199.2123652932 pbc="F F F"
C        0.07974552       0.62524430       0.06564106      59.17032146     -49.50941843     -32.44775728
C       -0.75228542      -0.01414129      -0.98533589      24.17370370     -33.76104421     -26.49311370
O        0.57748541      -0.55390076       0.82329240     -31.27375486      24.08722739     -10.18679431
H        0.99482553       1.10189734      -0.38226353     -14.34625882       2.25581648       6.63771420
H       -0.52785210       1.35156762       0.54243082     -11.91977961      18.20144201      34.30964994
H       -1.22100729       0.73917167      -1.58945838     -12.40748296       5.30323481     -16.83059645
H       -0.22341036      -0.84144571      -1.58309658      -2.99422503      35.17233763       7.75579527
H       -1.44355595      -0.63370324      -0.46929791     -34.56561982      -7.73259656      14.41391789
H        1.26741750      -0.20867486       1.37242729      24.14049679       5.99308518      22.98344373
9
Properties=species:S:1:pos:R:3:forces:R:3 energy=-97188.38259653868 pbc="F F F"
C       -0.56046081       0.09105410       0.29524354     -20.71262189     -45.05323640     -76.86729526
C        0.14461717       1.09575596      -0.67811460       8.03952982      11.39633273      67.22829956
O        0.33877343      -1.06901313       0.39798459      -3.81010021       1.64973513     -23.16919485
H       -0.68530446       0.61846899       1.18138004      -0.69790996       8.05341215      54.31611779
H       -1.57375180      -0.41868325       0.00605207      27.54558807      34.94219534       2.82138770
H        1.12653495       0.70430464      -0.46542745      25.66363291      -4.57842495     -20.40142246
H       -0.09491095       1.12793191      -1.70839864      -9.11342726       0.70161345     -26.72233358
H        0.33098775       2.10225400      -0.19041295     -24.13242567     -10.85761989     -17.40108645
H        0.47320949      -1.30907139      -0.57822340      -2.88517263       3.78005257      40.20133876
9
Properties=species:S:1:pos:R:3:forces:R:3 energy=-97198.13064647515 pbc="F F F"
C        0.29310643      -0.24037403      -0.53599207     -47.19000843      10.94886970       3.00896059
C       -1.20854852       0.00467964      -0.22826807     -49.93003922      15.14184090     -27.42821089
O        0.90666819       0.24142337       0.64766618      50.45120313      14.47198385     -28.23555375
H        0.36222855      -1.33450458      -0.68868824      15.67013045       2.10518858      -2.71579436
H        0.66993576       0.32021633      -1.44919350      -7.41018981     -10.62385712      24.84983316
H       -1.71719227      -0.69870829       0.47773417      18.81856004      -6.22313523      -7.52283962
H       -1.40140553       0.98147498       0.30758127      11.66867546      -9.83733777     -19.77390422
H       -1.90148228      -0.02807370      -1.14998390      20.68082166       2.93708148      21.88540211
H        0.50353802      -0.26555166       1.32889799     -12.76427269     -18.86880854      35.90219771
9
Properties=species:S:1:pos:R:3:forces:R:3 energy=-97189.88991002762 pbc="F F F"
C       -0.16342371      -0.06322522      -0.53876235     -85.12082513      76.90834268      21.34325328
C        0.15600511       1.33045861       0.20345985      68.45534079     -29.16719189      18.99727775
O        0.03594347      -1.14268506       0.31166806      19.21775776     -16.10636310      13.40654956
H       -1.32169234       0.08708477      -0.56721996      26.39395420      -9.71638623     -20.11413662
H        0.20075684      -0.29713317      -1.55320566       8.45521569      19.17498081       1.47624059
H        1.30811810       1.37309974       0.34885834     -33.89986752       4.16707443      -2.78264631
H       -0.14779277       2.30978815      -0.15297166      -5.35203051      -1.96697637     -30.18738177
H       -0.25442854       1.41399637       1.24146065       1.27203658     -22.70704238     -10.51263706
H       -0.26809356      -1.85054079      -0.26864924       0.55827954     -20.66230420       8.36468076
9
Properties=species:S:1:pos:R:3:forces:R:3 energy=-97189.71250260422 pbc="F F F"
C       -0.11407955      -0.48034641       0.20404155      33.14763890     -50.76274845     -47.72339433
C       -1.13765681       0.52023048       0.37076165       8.57630559      73.70502946      35.14835487
O        1.16814461      -0.01483376      -0.46993880     -23.78767344      -8.47742281      42.42458710
H       -0.06778951      -1.10772746       1.11239929      36.54419785      13.90476842       7.16021561
H       -0.54877709      -1.25521946      -0.43472557       0.50838156      -6.00267829     -15.87356886
H       -1.92985146       0.04534160       0.94943735      -8.87599790       4.00410693       7.74866963
H       -0.64515320       1.43102469       1.02869467     -36.33112022     -38.70010997     -39.76941840
H       -1.56148438       0.78070493      -0.61039252       1.78162419      17.61849943       5.67752735
H        1.12547868      -0.13542496      -1.43530738     -11.45799610      -5.21316108       5.19443608
9
Properties=species:S:1:pos:R:3:forces:R:3 energy=-97193.91859398944 pbc="F F F"
C       -0.16973664      -0.41370060       0.33857746     -14.45395066       4.24926151       6.32146456
C       -1.03407260       0.79309748       0.05844127     -27.73952562      39.29852606     -48.76087947
O        1.12082722      -0.31527083      -0.33724235     -19.25693729     -24.21913259       6.54533444
H       -0.07899714      -0.26608922       1.45951039      10.68784960     -26.37712014     -14.74197443
H       -0.71654709      -1.37910235       0.03548519      16.19037195      24.15341059      14.94253029
H       -2.09974229       0.65667666       0.44704891      33.38815835      12.40833619      19.45241988
H       -0.43029972       1.77687085       0.25834124     -33.17254408     -34.77454659       6.89961060
H       -1.41270295       0.95080740      -1.00804589      26.37458350     -11.40613338       8.89486126
H        1.29069474      -1.25718032      -0.57007820       7.97701321      16.63123972       0.43814896
9
Properties=species:S:1:pos:R:3:forces:R:3 energy=-97197.4030036503 pbc="F F F"
C        0.15874331      -0.41717515       0.46545970     -42.81015615      10.92241948      24.10728989
C       -0.99674521       0.60596782       0.39638135      15.94685465       1.90707250      37.63841146
O        0.73930401      -0.14624462      -0.79530666      43.40188474     -41.57942527      -4.74805688
H        0.79240685      -0.31969635       1.41178745      -2.18051982      13.18046589     -26.56460079
H       -0.33138238      -1.37864294       0.65615659       6.70106099     -20.30018753     -19.18535797
H       -1.47104912       0.73509710       1.38087375       1.55887505       3.27878974       2.00808836
H       -0.37583310       1.47938125       0.16832237     -21.76355122      16.82854408      -7.04140869
H       -1.81780052       0.37461914      -0.29970732      13.49600066      -0.13736728      -6.89626685
H        1.45312929      -0.82053381      -0.96301192     -14.24276397      15.85186907       0.68983423
9
Properties=species:S:1:pos:R:3:forces:R:3 energy=-97187.5378707824 pbc="F F F"
C       -0.10673767       0.42532864      -0.36403792      29.04128238      14.01192987     -13.26618121
C       -1.19236236      -0.34959132       0.31434673     -97.38062960      29.44576091     -38.93348072
O        1.21105254      -0.02552507       0.05937532     -15.31590042      -3.02484917     -14.57725435
H       -0.14609284       0.69896910      -1.45819143      -6.19304148     -37.23600835       2.13608944
H        0.01415725       1.41965067      -0.09915435     -17.33232048      57.91975868      36.48723879
H       -0.89130319      -1.25825430       0.71703944      22.43326990     -48.12118536      11.40659458
H       -1.71462219       0.12937082       1.17193455      14.31547325       8.85452871      -5.06668174
H       -2.14806246      -0.58184583      -0.37939001      47.66043957       7.69851336      23.48281561
H        1.14164283      -0.90671429      -0.30259989      22.79840748     -29.67659502      -1.72477121
9
Properties=species:S:1:pos:R:3:forces:R:3 energy=-97203.73924782366 pbc="F F F"
C       -0.02634609      -0.48585155       0.32837203       5.97495975       4.48860489     -13.42619698
C       -1.10677538       0.61166280       0.34599851      14.33625063      10.73685284      23.67675316
O        1.06009125      -0.14098691      -0.56344735       0.82838312      -1.92981923      -9.23463246
H        0.52201811      -0.47238115       1.27148912      -5.21528264     -13.10801027      10.65939312
H       -0.44788768      -1.53597761       0.06058932       9.53831421      33.16055270      13.61243236
H       -1.82719516       0.48252192       1.17489887      -1.25086718      -6.97584812      -7.24860594
H       -0.74019872       1.67977024       0.48031203       4.33433114     -27.63298680      -5.11741451
H       -1.58576229       0.54568138      -0.60221512     -23.66430057       4.84094397     -22.03992951
H        0.75319385       0.03764406      -1.47712606      -4.94121038      -3.62328831       8.94861494
9
Properties=species:S:1:pos:R:3:forces:R:3 energy=-97200.97200605426 pbc="F F F"
C        0.02318946       0.52401761       0.15885059      -7.14900828     -37.06720659      15.31428619
C       -1.26421067      -0.35790557       0.35987682       8.52900881     -17.22462865       4.00459120
O        1.13071405      -0.17632482      -0.45093887     -19.08340816     -17.90234927       7.37098721
H       -0.24280326       1.40348578      -0.43221299       0.56945228       6.41963247       2.92988665
H        0.34073536       0.72492842       1.18198605       2.87560258      21.93583509       5.82691230
H       -1.33626360      -1.20589004      -0.35304259       1.11067870      12.84908866      -4.26971604
H       -1.41485206      -0.87871233       1.36216701      14.54796770      19.92296632     -17.38150821
H       -2.09840763       0.32852218       0.22584069     -11.77871945      -1.98313014      -1.80946495
H        1.59048057       0.44562866      -1.00802134      10.42424673      13.08619518     -12.02846304
9
Properties=species:S:1:pos:R:3:forces:R:3 energy=-97196.49079431639 pbc="F F F"
C       -0.30386794      -0.42429985       0.17939873      48.38453456     -50.66520317      19.62511884
C       -0.96570650       0.88438128       0.15087806      -1.58614852      63.03246888     -43.72011756
O        1.16953428      -0.40068037      -0.25126903     -21.87467904      -8.31708419      -7.69556164
H       -0.35184675      -0.84720542       1.28327188       8.31383268      11.88456646     -43.70605075
H       -0.82220069      -1.14482470      -0.49064249       1.12097745       5.28241131       8.65420345
H       -1.95726611       0.80623331       0.52740501     -28.06467655      -8.71337631      16.08337193
H       -0.54801999       1.78709334       0.66009250       9.49941140     -21.35651298       2.89384332
H       -1.15378840       1.28490057      -0.89616996       9.63219289     -13.21623249      14.24781419
H        1.39604634      -1.00992132      -1.03107855     -25.44732683      22.02387951      33.70200971
9
Properties=species:S:1:pos:R:3:forces:R:3 energy=-97188.49316607426 pbc="F F F"
C        0.33869596       0.43321462       0.20248373     -55.02799079      28.72650860      14.84579212
C       -0.77658432       0.61029893      -0.88843295     -54.85757480     -48.04531681      -7.74989182
O        0.48985951      -0.93581199       0.67322913     -14.78643478      24.23804207      -7.14093716
H        1.13011131       0.71980659      -0.42517174      52.77107434       2.15377212      -4.18598391
H        0.21937794       1.28971267       1.06150199       5.06947204     -49.38120289     -35.02682682
H       -1.06728159      -0.43460638      -1.38539861      30.63244653      40.95472039       8.81345823
H       -1.82496575       0.82734810      -0.58868283       8.15457791       6.28678180      21.07909697
H       -0.64154210       1.38937087      -1.66562292      15.94514819     -10.67982459       3.77128964
H       -0.37449253      -1.37324388       0.49079214      12.10142599       5.63659523       5.52682796
9
Properties=species:S:1:pos:R:3:forces:R:3 energy=-97195.61895696781 pbc="F F F"
C        0.38789986       0.25950986       0.32748585     -47.17870886     -17.61411796      50.57964928
C       -1.16108764       0.11155303       0.64113185     -46.59712683     -10.90655395       2.57484950
O        0.71600408      -0.36770465      -0.88438056      21.35452979      16.97066501     -24.86643661
H        0.61481268       1.29271421       0.50081187      11.85477249      26.72832927     -19.09542260
H        0.87359907      -0.19834661       1.23045537       3.20944727      -8.70447501     -17.10169392
H       -1.39832386      -0.08718429       1.75251864      15.65200502       2.67712215     -30.37209517
H       -1.90971812       0.96792890       0.40411827      36.51076034     -16.40619377      -0.79619317
H       -1.64030921      -0.76551879       0.06068119      22.42229318      20.76376974      17.92693161
H        1.30692808       0.20399921      -1.45262163     -17.26738254     -13.44678987      21.11567068
9
Properties=species:S:1:pos:R:3:forces:R:3 energy=-97194.34706221055 pbc="F F F"
C       -0.38695751      -0.30835189      -0.30019583      30.45419002      22.93208833      66.99608184
C       -0.71926278       0.52358904       0.99801131     -52.24414534     -67.72940097      33.52513683
O        0.99833512      -0.19667997      -0.71622337       6.84013796       1.10654628       3.44939021
H       -0.60741517      -1.35595181      -0.03264801     -10.48489546       1.70240728     -16.13110685
H       -1.05536919       0.23032981      -0.95282801       2.55317277     -13.28783488     -35.15388935
H       -1.91151570       0.61740612       1.00742527      50.62692299      -4.15199296       5.31561822
H       -0.42468114      -0.05509294       1.98239258      -9.94779684      24.66396674     -36.84398240
H       -0.33633284       1.50631053       1.04049812      16.76902531      31.11325482      -4.76685107
H        1.66920306      -0.38731340       0.00880599     -34.54117585       3.68375255     -16.31771120
9
Properties=species:S:1:pos:R:3:forces:R:3 energy=-97192.10644181356 pbc="F F F"
C       -0.27956930      -0.10103712      -0.44051504     -34.92582249      24.70801201     -48.17353236
C        0.92181133       0.93316929      -0.43972763      13.68560285     -67.80319409      48.67002169
O       -0.61266387      -0.80159736       0.77379190      41.06310404      55.60265471      34.87047765
H       -1.22583803       0.50074149      -0.95884706      36.86681215     -19.89916804      40.91275056
H       -0.21575405      -0.88099018      -1.22532442      15.65417269      -0.55552383       6.09674145
H        1.97238746       0.44339346      -0.24194247     -39.46617480      11.15726608     -16.00718053
H        0.90076602       1.44711405      -1.37689934       3.35477360      18.75915658     -11.90875677
H        0.79464205       1.52836485       0.48223289      -3.46232707      14.95186973     -12.40829007
H       -0.15516655      -0.23183473       1.52714644     -32.73116898     -36.90762897     -42.11142755
9
Properties=species:S:1:pos:R:3:forces:R:3 energy=-97204.13653637614 pbc="F F F"
C       -0.14893801      -0.14015235      -0.52484784     -26.09762870     -14.39943599       1.30447327
C       -0.14748481       1.32639209      -0.02683284      12.33214479       0.31816134      -0.81459995
O        0.21310749      -1.09757674       0.48353221      50.79019027      10.35910125      14.46015389
H       -1.15766003      -0.54358731      -0.70621320      -5.55120275      15.01611587     -12.35854889
H        0.45300369      -0.33936313      -1.44584042      -4.42597298      12.41698382       6.93964337
H       -0.52519291       1.41801757       1.01714622       4.08096708      -7.77237567      -9.60297543
H        0.92593365       1.62408621      -0.03567512     -10.18679431       8.00219511       3.45559345
H       -0.73638614       2.07559527      -0.61893008      10.00113543     -16.90766414      -0.31640645
H        1.18877941      -0.94934732       0.68810368     -30.87642503      -7.03130826      -3.03833947
9
Properties=species:S:1:pos:R:3:forces:R:3 energy=-97197.546722439 pbc="F F F"
C       -0.10016060       0.32060351      -0.38537141     -33.25348591      25.04330950     -10.90717658
C       -1.24516288      -0.18828253       0.50460431      16.84208050     -10.64027609      66.40043300
O        1.25111293      -0.07478805      -0.15254445      -5.66055493      18.72290571       7.45732516
H       -0.41254108       0.00861014      -1.42177563       8.98899361      13.18911352       7.32744927
H       -0.18062420       1.46088732      -0.25441592      15.06850898     -29.35190529     -14.59731685
H       -1.09372070       0.07824819       1.61556283      13.11760337      -7.63675775     -23.97169503
H       -2.20433513       0.38990931       0.43382023       8.66411940     -21.27702395     -24.11674463
H       -1.26053689      -1.32444639       0.53967252     -17.18826248      24.28324036      -9.20709840
H        1.32238682      -1.00431889       0.08774024      -6.52856957     -12.36892605       1.72152661
9
Properties=species:S:1:pos:R:3:forces:R:3 energy=-97199.16049564796 pbc="F F F"
C       -0.31244840      -0.43642403      -0.02162638       9.06410117       2.89497328      30.20352402
C       -0.90679701       0.93277255       0.28971237     -23.47543630      48.54388158      -9.56271206
O        1.10551098      -0.49952971      -0.29924115      14.14932343      28.28075203      57.34670898
H       -0.64512812      -1.16510115       0.75983797      11.00241583       5.86938946      -0.49793983
H       -0.71250556      -0.80809379      -0.91397906     -23.47912596     -13.61084120     -38.82648069
H       -1.96046542       0.86896910       0.79776615      34.87555093      -1.08667057     -27.60946524
H       -0.34220033       1.57130604       1.00646714       4.44850294     -15.24335256       1.51046676
H       -0.92271012       1.66426798      -0.63997731      -7.35648225     -35.41862217      31.86525284
H        1.56247401      -0.11816245       0.54531345     -19.34060024     -20.22796251     -44.59156819
9
Properties=species:S:1:pos:R:3:forces:R:3 energy=-97199.50426158929 pbc="F F F"
C       -0.52262059      -0.20659583       0.06284285     -37.79660546      24.27355501      -4.55132904
C       -0.19115283       1.17975756      -0.55507647      20.96381828      23.14774873      10.21306005
O        0.61415102      -0.94174813       0.50656877      23.92718856      18.22982930     -23.01607413
H       -1.25588340       0.01494581       0.95061451      29.84147652     -17.42393925     -28.90407329
H       -1.05898410      -0.80009600      -0.70861224      -3.33537984       0.03257136       6.91406944
H       -0.89622524       1.72740622      -1.18606667     -27.11804919     -12.57116532       4.84013686
H        0.02026569       1.90554317       0.26543111       5.79382070      -7.54442411      -7.91228281
H        0.64593161       1.24980054      -1.28755300       7.37898916     -16.55913001      13.85797897
H        1.30064831      -0.74666696      -0.20926653     -19.65627337     -11.62663644      28.67600643
9
Properties=species:S:1:pos:R:3:forces:R:3 energy=-97201.06862569232 pbc="F F F"
C        0.13720022       0.26049124       0.46676860      33.95475115     -22.74599131      36.62629270
C       -1.28529734       0.04972375       0.15630184     -11.42716442      35.97737445     -10.73710650
O        1.07699520      -0.22651788      -0.55957652      -0.10915202      65.75335958      22.34225070
H        0.31543823       1.32071391       0.77971624      11.25737106     -11.02116389     -21.51272379
H        0.33590472      -0.31052873       1.40720452       5.67803468       3.01442589      -4.38167404
H       -1.98716092       0.32270038       0.95250506       3.40416887       4.97923689       3.00199636
H       -1.49892367       0.60861171      -0.74162040     -13.59218538      11.23779282     -12.90819233
H       -1.45286342      -0.94617203      -0.08027762     -11.69090564     -55.29987232      -9.95483025
H        0.87190179      -1.09777286      -0.85972613     -17.51804854     -32.07602444      -2.58089131
9
Properties=species:S:1:pos:R:3:forces:R:3 energy=-97198.34240482653 pbc="F F F"
C       -0.03301543       0.54624384      -0.01448127     -29.53961654     -34.23585682     -40.32494223