9
Properties=species:S:1:pos:R:3:forces:R:3:momenta:R:3 energy=-4215.017578125 pbc="F F F"
C       -0.21084286      -0.11834824      -0.45866541      -0.28203276      -1.97870946      -0.38732153       0.92154215       1.69165918      -0.07555797
C        0.81744340       0.97064619      -0.42840642       0.12469164      -1.94358289       2.50139737      -1.56216807      -0.37081044      -0.46607475
O       -0.50609040      -0.73496168       0.81448336       0.91032130       0.84345198       0.52604753       0.75164823      -0.19928101       0.05903979
H       -1.10847982       0.18724024      -0.90871368      -1.82207000       0.97042590      -0.62371552      -0.09075261       0.17265897       0.15041736
H        0.07587150      -0.97354402      -1.10770622       0.58830082       0.35018122      -0.21478784       0.15026112       0.26690551       0.85738170
H        1.66251034       0.38332931      -0.02096263       0.50089610       0.81214267      -0.02942995      -0.57377605      -0.19321780       0.34769363
H        1.03972563       1.27513655      -1.41303383       0.27566808       0.83401549      -1.21646345      -0.26400221      -0.28837161       0.63357401
H        0.53000248       1.73105344       0.31449423       0.16090699       0.24925929      -0.45714208      -0.07797932      -0.28947224       0.23877991
H       -1.39556586      -1.09445624       0.77775459      -0.45668209      -0.13718413      -0.09858480      -0.42065389      -0.68907760       0.01746749
